ITEM: TIMESTEP
0
ITEM: NUMBER OF ATOMS
3168
ITEM: BOX BOUNDS pp pp pp
-1.4142135619999999e+01 1.4142135619999999e+01
-1.4142135619999999e+01 1.4142135619999999e+01
-4.0000000000000000e+01 4.0000000000000000e+01
ITEM: ATOMS id type x y z q vx vy vz ix iy iz
1 1 -2.10825 -5.03091 -18.6008 -1.1128 0.00126649 -0.000742295 0.000939185 0 0 0
2 2 -1.25046 -4.99622 -18.1775 0.5564 -0.000221313 0.00328237 0.00361908 0 0 0
3 2 -2.40816 -5.92927 -18.4622 0.5564 0.00226712 -0.000378183 0.00548804 0 0 0
4 1 -2.53522 -5.4215 -6.86385 -1.1128 -0.00112329 -0.00295896 0.000366728 0 0 0
5 2 -1.84773 -5.57599 -6.21598 0.5564 0.00814835 -0.00443896 -0.0097786 0 0 0
6 2 -2.43211 -4.50187 -7.10855 0.5564 -0.000134865 -0.00428661 -0.00420323 0 0 0
7 1 -5.57661 -1.17081 -6.93611 -1.1128 0.00111727 -0.00677518 -0.00348826 0 0 0
8 2 -5.83377 -0.249355 -6.96789 0.5564 0.00366008 -0.00496829 0.0293178 0 0 0
9 2 -6.35953 -1.62803 -6.62915 0.5564 0.00180398 -0.0148351 -0.0137142 0 0 0
10 1 -7.79634 -9.55633 -6.81527 -1.1128 0.0021408 -0.00249148 -0.00448042 0 0 0
11 2 -8.08812 -9.80877 -5.93928 0.5564 0.0316627 0.0348314 0.0161431 0 0 0
12 2 -7.32158 -10.3215 -7.13988 0.5564 0.00338757 -0.0111638 0.0177348 0 0 0
13 1 -3.59415 -1.64012 -8.85517 -1.1128 -0.00435135 -0.010778 0.00235426 0 0 0
14 2 -4.38265 -1.74103 -8.32195 0.5564 -0.00631181 0.0144697 0.00416949 0 0 0
15 2 -3.89564 -1.19615 -9.64778 0.5564 0.00797544 -0.00147144 0.00288018 0 0 0
16 1 -1.24413 1.83211 -0.629098 -1.1128 -0.000429354 -0.00756014 0.00948981 0 0 0
17 2 -2.19918 1.77419 -0.601725 0.5564 -0.000487897 -0.0108548 0.000387304 0 0 0
18 2 -0.953665 1.38415 0.165382 0.5564 -0.00642111 -0.00735557 0.0117891 0 0 0
19 1 -3.52689 9.9783 -8.76359 -1.1128 -0.00582402 -0.00795166 0.00198533 0 -1 0
20 2 -4.38054 9.91069 -9.19132 0.5564 -0.00963808 0.0182613 0.00539123 0 -1 0
21 2 -2.95089 9.4222 -9.28819 0.5564 -0.0137614 0.0129458 -0.0288658 0 -1 0
22 1 3.50295 12.3491 0.802095 -1.1128 0.00188185 -0.0040013 -0.00211789 0 -1 0
23 2 2.89883 11.7278 1.20855 0.5564 0.00662519 -0.00283463 0.00670244 0 -1 0
24 2 4.27345 12.3412 1.36998 0.5564 0.00228153 0.00929714 -0.00248932 0 -1 0
25 1 0.0254258 -4.72136 -17.0549 -1.1128 -0.0035319 0.00218458 -0.00214729 0 0 0
26 2 0.739376 -5.31855 -16.8315 0.5564 -0.0172726 -0.0147401 -0.00359871 0 0 0
27 2 0.455622 -3.98482 -17.4892 0.5564 0.0129912 -0.00832459 -0.00358796 0 0 0
28 1 -4.54073 -2.12701 -0.997125 -1.1128 -0.00141984 -0.00476816 0.0067269 0 0 0
29 2 -4.6278 -1.27369 -1.42196 0.5564 -0.0125768 -0.00886812 0.000793248 0 0 0
30 2 -3.8677 -2.58031 -1.50484 0.5564 -0.0125624 -0.00851793 -0.00469516 0 0 0
31 1 -7.33413 -8.55183 -3.26801 -1.1128 0.00354443 -0.00055655 0.00261716 0 0 0
32 2 -7.66767 -9.42099 -3.04543 0.5564 0.00719452 -0.00464117 -0.00785768 0 0 0
33 2 -6.63215 -8.39518 -2.63642 0.5564 0.0245278 -0.0188136 -0.0161366 0 0 0
34 1 -10.7948 -7.94873 4.77016 -1.1128 -0.00146641 -0.000168599 -0.00113946 0 0 0
35 2 -11.1655 -7.10587 5.03169 0.5564 0.00181321 0.00347738 -0.00821198 0 0 0
36 2 -10.1712 -7.73195 4.07707 0.5564 -0.00505751 -0.009076 -0.00715754 0 0 0
37 1 -0.946596 -8.17776 2.38565 -1.1128 0.0050525 0.00494158 -0.00201141 0 0 0
38 2 -0.404553 -8.84225 1.96035 0.5564 0.00765637 -0.00975664 0.0242605 0 0 0
39 2 -0.330144 -7.48985 2.63666 0.5564 0.00624153 0.00497841 -0.00503497 0 0 0
40 1 5.42245 -10.6699 -4.71735 -1.1128 -0.00543541 -0.00298142 0.00169301 -1 0 0
41 2 4.6345 -10.6813 -4.17399 0.5564 -0.00689852 0.0162663 6.61373e-06 -1 0 0
42 2 6.11766 -10.9827 -4.13851 0.5564 -0.0163375 -0.0303957 1.74946e-05 -1 0 0
43 1 -5.34242 14.0789 -17.2977 -1.1128 -0.00465062 -0.00300091 -0.00192144 0 -1 0
44 2 -5.63667 13.9935 -16.3909 0.5564 -0.0112963 0.000100203 -0.00379274 0 -1 0
45 2 -6.08446 13.775 -17.8204 0.5564 -0.00621477 0.00910955 -0.00676448 0 -1 0
46 1 -7.85819 -7.97292 -11.0276 -1.1128 -0.00430073 0.00126934 -0.0016683 0 0 0
47 2 -7.52156 -8.82424 -10.748 0.5564 0.0161066 0.00869194 -0.00354673 0 0 0
48 2 -7.41657 -7.34182 -10.4593 0.5564 -0.019768 0.0105707 2.99231e-05 0 0 0
49 1 -6.09265 8.60536 -17.9986 -1.1128 -0.00304231 -0.00369739 0.00321632 0 -1 0
50 2 -6.85665 8.10133 -18.2788 0.5564 0.00429919 -0.0189981 0.0106456 0 -1 0
51 2 -6.4314 9.20523 -17.3341 0.5564 -0.00692099 -0.0165774 0.0128673 0 -1 0
52 1 3.01764 -8.91006 -16.8678 -1.1128 0.000681905 0.00376269 -0.00121805 0 0 0
53 2 3.88589 -8.81436 -17.2592 0.5564 -0.00225307 0.00399251 -0.0076646 0 0 0
54 2 2.69887 -8.01295 -16.7687 0.5564 0.00252268 0.00382444 0.00416997 0 0 0
55 1 -8.17834 -11.7012 -16.3903 -1.1128 -0.00439188 0.000499558 -0.00280313 0 0 0
56 2 -7.93566 -11.2407 -17.1936 0.5564 -0.030138 -0.00936467 -0.0162508 0 0 0
57 2 -9.13116 -11.621 -16.3462 0.5564 -0.0026641 0.00411235 0.0286447 0 0 0
58 1 12.6722 -12.4903 -15.5797 -1.1128 -0.000307862 -0.00376899 -0.00728617 -1 0 0
59 2 11.8261 -12.934 -15.5206 0.5564 0.0086615 -0.0177828 0.0155454 -1 0 0
60 2 13.1038 -12.8959 -16.3317 0.5564 -0.0110736 -0.0014267 -0.0147206 -1 0 0
61 1 14.1348 -13.6031 -13.3112 -1.1128 -0.00524669 -0.00374555 0.0067299 -1 0 0
62 2 13.6207 -13.7 -14.1128 0.5564 -0.0240723 0.0133758 0.0167691 -1 0 0
63 2 13.5162 -13.2533 -12.6701 0.5564 0.0145334 0.000259403 0.0236099 -1 0 0
64 1 11.476 7.46715 2.71147 -1.1128 -0.00368373 0.00658818 -0.00138659 -1 -1 0
65 2 11.9766 8.0931 2.18814 0.5564 0.0254604 -0.0170877 -0.0017755 -1 -1 0
66 2 10.8495 7.08655 2.09595 0.5564 0.019162 -0.00879021 -0.015169 -1 -1 0
67 1 -11.4031 -9.99539 2.41104 -1.1128 -0.00108827 0.00478102 0.00115056 0 0 0
68 2 -10.7959 -9.26231 2.51167 0.5564 -0.00152361 0.00419448 0.00811638 0 0 0
69 2 -11.0611 -10.6722 2.99519 0.5564 -0.0119939 0.00674811 0.00984919 0 0 0
70 1 -8.62334 5.7505 -16.5247 -1.1128 0.00427872 0.000899312 -0.00430855 0 0 0
71 2 -9.12962 5.41893 -15.7831 0.5564 0.00274418 0.0133302 0.000198966 0 0 0
72 2 -7.84721 6.1459 -16.1278 0.5564 0.00894776 -0.00250737 -0.0100604 0 0 0
73 1 8.54693 -11.4246 -15.4831 -1.1128 -0.000522382 0.00378027 0.00140678 -1 0 0
74 2 9.17615 -12.1456 -15.5039 0.5564 -0.0155445 -0.0101966 0.0321869 -1 0 0
75 2 7.70758 -11.8323 -15.6963 0.5564 -0.00810588 0.0130803 0.013441 -1 0 0
76 1 -8.15115 -6.30063 -4.48052 -1.1128 -0.00140926 -0.00177184 0.00415218 0 0 0
77 2 -8.21466 -5.78336 -3.67763 0.5564 -0.0147643 -0.000919945 0.00256516 0 0 0
78 2 -7.8533 -7.16203 -4.1881 0.5564 0.00980269 0.00344395 0.00810947 0 0 0
79 1 -5.21503 -4.90859 -15.404 -1.1128 0.00044526 0.00185506 0.00661938 0 0 0
80 2 -4.58985 -4.2878 -15.7782 0.5564 0.00524052 -0.00510188 0.00311032 0 0 0
81 2 -4.67266 -5.53984 -14.9311 0.5564 -0.00346756 -0.00811101 -0.00219397 0 0 0
82 1 6.33273 -3.72616 3.81116 -1.1128 0.00320498 0.000145575 -0.00339266 -1 0 0
83 2 6.12282 -3.18497 3.05005 0.5564 0.00276924 -0.00366316 -0.00599475 -1 0 0
84 2 7.11087 -3.31677 4.18947 0.5564 0.0032455 0.00222577 -0.00571283 -1 0 0
85 1 -3.56366 3.54772 -4.23693 -1.1128 -0.00442639 0.00620256 0.00485804 0 0 0
86 2 -4.03853 4.23883 -3.77532 0.5564 0.0234307 0.043157 -0.021807 0 0 0
87 2 -3.14662 3.03795 -3.54235 0.5564 -0.01268 0.02522 0.023775 0 0 0
88 1 -11.9604 -2.0671 -12.9656 -1.1128 0.000850641 0.00255273 0.00504132 0 0 0
89 2 -12.608 -1.5762 -12.4598 0.5564 0.00527571 0.00310585 0.0101744 0 0 0
90 2 -12.2912 -2.9653 -12.9716 0.5564 -0.0169018 0.00932396 -0.0203271 0 0 0
91 1 -2.61266 7.26037 -7.29218 -1.1128 -0.00219715 0.00597857 -0.00261398 0 0 0
92 2 -3.31032 7.90749 -7.39587 0.5564 0.00928205 0.0151545 -0.0226091 0 0 0
93 2 -1.85358 7.65498 -7.7215 0.5564 0.00887998 -0.0142976 -0.00167397 0 0 0
94 1 -1.67571 -13.3693 2.27981 -1.1128 -0.00855292 0.000478285 -0.00227259 0 0 0
95 2 -1.7343 -12.8231 1.49591 0.5564 0.0103495 0.00527871 -0.000337749 0 0 0
96 2 -2.45247 -13.1405 2.79027 0.5564 0.00725315 0.0366519 0.00568212 0 0 0
97 1 -6.6565 -5.0293 -6.3381 -1.1128 -4.04089e-05 0.000198909 0.00205147 0 0 0
98 2 -7.19682 -5.39597 -5.63821 0.5564 -0.0158392 -0.00755746 -0.0142433 0 0 0
99 2 -6.91766 -4.10966 -6.38613 0.5564 0.00413514 0.00175902 0.00928558 0 0 0
100 1 -7.80294 -2.47921 -5.81175 -1.1128 0.00231317 -0.000710172 0.0001815 0 0 0
101 2 -8.63123 -2.1068 -6.11421 0.5564 -0.00165466 -0.0112905 -0.00205367 0 0 0
102 2 -7.90886 -2.56191 -4.86403 0.5564 0.0021327 0.00129626 0.000331308 0 0 0
103 1 -2.69628 -3.51091 -4.05377 -1.1128 0.00136108 0.00361387 -0.00897864 0 0 0
104 2 -2.38345 -3.66403 -3.16219 0.5564 0.00156812 0.0214199 -0.00599632 0 0 0
105 2 -3.58225 -3.87312 -4.06277 0.5564 -0.00363811 0.0155667 0.00228551 0 0 0
106 1 -3.50309 1.61 -8.06011 -1.1128 -0.00681761 0.00382535 -0.00346235 0 0 0
107 2 -2.76192 1.36647 -7.5055 0.5564 0.00383557 -0.00322672 -0.020748 0 0 0
108 2 -3.82071 0.779484 -8.41451 0.5564 -0.0206605 0.00721103 0.000992011 0 0 0
109 1 -7.35966 -10.4042 -18.6005 -1.1128 -0.00150707 -0.00738798 0.000630741 0 0 0
110 2 -6.47295 -10.1158 -18.3842 0.5564 -0.00471933 -0.000157095 0.00414351 0 0 0
111 2 -7.23418 -11.2066 -19.107 0.5564 0.0075963 0.00391171 -0.0149823 0 0 0
112 1 -13.8007 6.74904 -16.1413 -1.1128 -0.00279382 0.000328954 0.00832598 0 -1 0
113 2 -13.9585 6.05161 -16.7776 0.5564 0.0256895 -0.00318123 0.00506988 0 -1 0
114 2 -13.0824 7.25835 -16.5167 0.5564 -0.00326961 0.0135062 0.0252974 0 -1 0
115 1 -3.10583 -7.5396 -18.3381 -1.1128 0.00068381 -0.00327845 -0.000466753 0 0 0
116 2 -2.95976 -7.592 -17.3936 0.5564 -0.00380299 0.0117944 0.00108461 0 0 0
117 2 -3.95032 -7.09766 -18.4262 0.5564 -0.00150484 -0.00962327 -0.0114161 0 0 0
118 1 -11.5071 -10.6179 -17.1357 -1.1128 -0.00445023 -0.0002381 -0.00173732 0 0 0
119 2 -11.1626 -10.0578 -17.8313 0.5564 -0.0222506 0.00925141 -0.00293598 0 0 0
120 2 -12.1843 -10.0885 -16.7146 0.5564 0.00221246 -0.00821826 0.0189932 0 0 0
121 1 6.64459 -1.92524 -3.62979 -1.1128 -0.00507262 -0.000154758 0.00348966 -1 0 0
122 2 7.03567 -1.72186 -4.47945 0.5564 0.0114897 -0.0116573 0.00835397 -1 0 0
123 2 6.9833 -2.79344 -3.41134 0.5564 -0.0160404 -0.000809243 0.0179077 -1 0 0
124 1 4.2987 -12.5315 -12.2019 -1.1128 0.00436782 -0.00138788 0.00330013 0 0 0
125 2 4.11957 -12.9613 -11.3655 0.5564 -0.0324749 -0.0230034 -0.0157158 0 0 0
126 2 4.60596 -11.6574 -11.9616 0.5564 0.00832871 -0.0128621 0.0398943 0 0 0
127 1 -10.4115 12.7056 2.81116 -1.1128 0.000844875 0.00186273 0.000927303 0 -1 0
128 2 -11.3625 12.7617 2.71863 0.5564 0.00152268 -0.00200218 -0.00834891 0 -1 0
129 2 -10.107 12.3767 1.96537 0.5564 0.00879744 -0.0141849 0.0100263 0 -1 0
130 1 -11.4453 -2.88386 -8.27001 -1.1128 0.00261038 -0.000502241 -0.000509938 0 0 0
131 2 -12.1888 -3.25731 -7.79677 0.5564 0.0206339 -0.0284139 0.00576026 0 0 0
132 2 -11.0883 -3.61618 -8.77253 0.5564 0.0181531 0.0158585 -0.0133337 0 0 0
133 1 -10.7586 -13.4705 -6.46575 -1.1128 -0.000170088 -0.00161706 -0.000104479 0 0 0
134 2 -9.94828 -13.7443 -6.89541 0.5564 -0.00711132 -0.0128483 -0.00605376 0 0 0
135 2 -10.5319 -13.4176 -5.53728 0.5564 0.0124941 0.0140775 -0.00409056 0 0 0
136 1 -2.59971 -8.04042 -15.7823 -1.1128 -0.00234429 0.00467369 0.00535374 0 0 0
137 2 -2.80809 -8.97349 -15.8291 0.5564 -0.00162958 0.00430398 0.00950706 0 0 0
138 2 -1.64356 -8.0063 -15.8112 0.5564 -0.00208782 0.00475975 0.0143263 0 0 0
139 1 -11.2374 -5.83514 -5.06008 -1.1128 0.000558662 0.00229029 -0.00670899 0 0 0
140 2 -10.2987 -5.82046 -5.24645 0.5564 -0.00256744 0.037605 -0.0197768 0 0 0
141 2 -11.5615 -6.60914 -5.52068 0.5564 0.0180818 0.00690911 -0.0267638 0 0 0
142 1 -8.31367 -5.3183 -18.2737 -1.1128 -0.00156628 -0.00320729 0.00221708 0 0 0
143 2 -8.35943 -5.4839 -17.3321 0.5564 -0.0050923 0.0251067 0.0070539 0 0 0
144 2 -9.19599 -5.50642 -18.5936 0.5564 0.00063077 -0.0164941 0.00398941 0 0 0
145 1 -11.2017 -13.3656 -16.4764 -1.1128 -0.000745436 0.00151036 0.00511686 0 0 0
146 2 -11.5565 -12.6344 -16.9821 0.5564 0.00758444 0.00434514 0.00338743 0 0 0
147 2 -11.2921 -13.0923 -15.5635 0.5564 0.0146596 0.0103376 0.00401502 0 0 0
148 1 11.7739 -0.198166 -19.0488 -1.1128 -0.00140189 0.00879111 -0.00295757 0 0 0
149 2 11.5953 -0.187779 -19.9891 0.5564 0.0338607 0.0223967 -0.00950169 0 0 0
150 2 12.3911 -0.919997 -18.9297 0.5564 0.00484121 0.015901 0.0078025 0 0 0
151 1 12.143 -1.05082 4.08321 -1.1128 -0.00541398 -0.0053427 0.00108883 -1 0 0
152 2 12.3026 -0.36967 3.42991 0.5564 -0.00561483 -0.0157547 -0.00982576 -1 0 0
153 2 11.2842 -1.40621 3.85443 0.5564 -0.00674153 -0.00704947 0.00872431 -1 0 0
154 1 -7.02612 1.24091 -6.57769 -1.1128 0.00404948 -0.00404423 0.00338793 0 0 0
155 2 -7.93402 1.46327 -6.78383 0.5564 0.00989626 -0.00142822 -0.0196409 0 0 0
156 2 -6.89262 1.57516 -5.69074 0.5564 -0.0234371 -0.0219235 0.0142391 0 0 0
157 1 4.42863 11.3668 4.31562 -1.1128 -0.00178676 0.00244071 0.00400017 0 -1 0
158 2 4.81123 11.4179 5.19155 0.5564 0.00780989 -0.030324 0.00170807 0 -1 0
159 2 5.10925 11.7091 3.73612 0.5564 -0.0048799 0.0160706 0.00844374 0 -1 0
160 1 13.8884 -7.34597 -0.173324 -1.1128 -0.00347517 0.00255522 0.00190104 -1 0 0
161 2 13.8197 -7.31775 0.78099 0.5564 -0.0121467 -0.0303042 0.00227281 -1 0 0
162 2 -13.5816 -6.88251 -0.369122 0.5564 -0.00239603 0.0104977 0.0251739 0 0 0
163 1 7.97869 -0.638393 -1.60519 -1.1128 0.00243649 9.48568e-05 0.00270303 0 0 0
164 2 7.75724 -1.09713 -2.41559 0.5564 -0.00413559 -0.00484031 0.00730985 0 0 0
165 2 8.29327 -1.32611 -1.0184 0.5564 0.00983142 0.00406696 0.00339574 0 0 0
166 1 -13.8127 12.4517 -16.2972 -1.1128 0.00491722 -0.00312338 0.00300165 0 -1 0
167 2 -12.8581 12.399 -16.3432 0.5564 0.0047924 -0.00274539 -5.58225e-05 0 -1 0
168 2 -14.0681 12.8915 -17.1081 0.5564 0.00102849 -0.0174793 -0.00360131 0 -1 0
169 1 -9.4156 -10.3271 -1.95947 -1.1128 -0.00194111 0.00622795 -0.0018697 0 0 0
170 2 -9.56884 -10.4171 -2.90002 0.5564 -0.0182385 0.0149361 -5.30255e-05 0 0 0
171 2 -10.192 -10.7109 -1.55197 0.5564 0.00422983 0.00422604 0.00801333 0 0 0
172 1 12.009 -8.11269 -8.61373 -1.1128 0.00601244 -0.00251022 0.000181909 -1 0 0
173 2 12.5314 -8.05281 -9.41362 0.5564 -0.000491499 0.00363651 -0.00360246 -1 0 0
174 2 11.396 -7.37987 -8.672 0.5564 0.00175503 -0.0054406 0.00807328 -1 0 0
175 1 -10.4987 0.00117059 0.260446 -1.1128 -0.00862738 -0.00559102 0.0061855 0 0 0
176 2 -11.3497 -0.351865 0.519944 0.5564 -0.00653314 -0.00467732 0.0142538 0 0 0
177 2 -10.1128 -0.68165 -0.288275 0.5564 -0.0160842 -0.00450758 -0.000385877 0 0 0
178 1 12.7186 5.66438 -8.09869 -1.1128 0.00083559 -0.000362763 -0.00356232 -1 -1 0
179 2 13.5327 6.16679 -8.06628 0.5564 -0.00356847 0.00579693 0.0107514 -1 -1 0
180 2 12.9458 4.87031 -8.58252 0.5564 0.0152637 0.00153141 0.000125133 -1 -1 0
181 1 -0.541837 -6.12748 -4.84556 -1.1128 -0.00243519 0.00249745 -0.00521372 0 0 0
182 2 -0.380669 -6.14399 -3.90217 0.5564 0.0179406 -0.0181576 -0.00905461 0 0 0
183 2 -0.602277 -7.04966 -5.09487 0.5564 0.00695492 0.00765451 -0.0265774 0 0 0
184 1 -6.30145 -10.4159 2.74029 -1.1128 -0.000732918 0.00105044 -0.000546469 0 0 0
185 2 -6.36091 -9.52092 2.40601 0.5564 0.0124917 0.001373 -0.00205619 0 0 0
186 2 -5.65255 -10.3672 3.44229 0.5564 -0.00309221 -0.00651092 0.00216018 0 0 0
187 1 -9.67415 -12.7127 -10.3884 -1.1128 0.000466749 0.00124333 -0.00279237 0 0 0
188 2 -9.75018 -11.7603 -10.3309 0.5564 -0.0122312 -0.000787852 0.0140184 0 0 0
189 2 -9.61701 -12.8928 -11.3268 0.5564 -0.0229497 0.0166076 -0.00719816 0 0 0
190 1 -1.00654 -0.120952 1.56069 -1.1128 0.000551785 -0.00499052 -0.000880766 0 0 0
191 2 -0.632339 -0.271325 2.42878 0.5564 -0.00725594 0.0150789 0.00593385 0 0 0
192 2 -1.69194 -0.78382 1.47669 0.5564 0.0119553 -0.0171675 0.0019082 0 0 0
193 1 3.39516 6.49838 -15.7894 -1.1128 -0.000769921 -0.0010864 -0.00645849 -1 -1 0
194 2 3.1211 5.92987 -15.0698 0.5564 -0.000976545 -0.00652609 -0.0108344 -1 -1 0
195 2 4.25575 6.82304 -15.5245 0.5564 0.00282376 -0.0097162 -0.00761241 -1 -1 0
196 1 -11.9198 10.9815 -7.23448 -1.1128 0.000105117 0.00732428 -0.00376905 0 -1 0
197 2 -12.365 11.8157 -7.08554 0.5564 -0.00184363 0.00757267 -0.0110145 0 -1 0
198 2 -11.8235 10.9273 -8.18527 0.5564 -0.000524959 -0.00110722 -0.0033472 0 -1 0
199 1 9.28511 9.25797 -15.7871 -1.1128 -0.0028585 -0.00167813 -0.000958516 -1 -1 0
200 2 8.42694 9.47098 -15.4205 0.5564 -0.0159378 -0.00561312 -0.0294851 -1 -1 0
201 2 9.89683 9.81453 -15.3051 0.5564 -0.0244999 0.0206363 0.00067526 -1 -1 0
202 1 -4.49513 -9.91877 -18.7764 -1.1128 -0.00507212 0.00338167 0.00814238 0 0 0
203 2 -4.05383 -10.6733 -19.1664 0.5564 -0.000437174 -0.00377036 0.0271692 0 0 0
204 2 -3.87659 -9.1964 -18.8851 0.5564 -0.0121258 0.00584014 -0.0157294 0 0 0
205 1 -9.69465 -12.7257 2.11018 -1.1128 -0.000416365 -0.00125607 -0.00571684 0 0 0
206 2 -9.87257 -13.666 2.13016 0.5564 -0.00501231 -0.000397697 -0.00615079 0 0 0
207 2 -8.91806 -12.6401 1.55717 0.5564 0.0127958 -0.00682261 0.0119144 0 0 0
208 1 -6.88454 -5.78998 -13.5687 -1.1128 -0.00154485 0.000237406 0.00279951 0 0 0
209 2 -6.73646 -6.73532 -13.5941 0.5564 -0.00234697 0.000290844 -0.00402746 0 0 0
210 2 -6.41945 -5.45354 -14.3347 0.5564 0.00510389 0.00626462 0.00948754 0 0 0
211 1 -1.72757 12.0527 -9.58578 -1.1128 -0.00182872 0.00526236 -0.00298351 0 -1 0
212 2 -2.28986 11.4395 -9.11249 0.5564 -0.00283762 0.0118179 0.00433298 0 -1 0
213 2 -1.64849 12.8063 -9.00083 0.5564 -0.0135968 0.0187852 -0.0187744 0 -1 0
214 1 -13.1628 -5.6732 -17.334 -1.1128 -0.00666515 -0.00566655 -0.000411629 0 0 0
215 2 -13.432 -6.57834 -17.1774 0.5564 -0.00655975 -0.0108267 -0.0300273 0 0 0
216 2 -12.4278 -5.53463 -16.7367 0.5564 -0.0133473 -0.0218703 0.0115868 0 0 0
217 1 -6.63432 5.87081 -6.29747 -1.1128 0.000197349 0.000904255 0.00246721 0 0 0
218 2 -6.13056 5.0817 -6.49686 0.5564 0.000213355 -0.00121697 0.0108843 0 0 0
219 2 -7.51862 5.67576 -6.60762 0.5564 0.000125742 -0.00253581 0.00484551 0 0 0
220 1 -6.50215 -8.63201 -13.3203 -1.1128 0.000898599 -0.00149712 -0.00535219 0 0 0
221 2 -7.30253 -8.63105 -13.8453 0.5564 0.0102959 0.0293221 -0.0197473 0 0 0
222 2 -6.80107 -8.46343 -12.4268 0.5564 -0.0100848 -0.00409599 -0.00854694 0 0 0
223 1 -9.44168 2.00549 -1.68496 -1.1128 0.00116663 -0.00491808 -0.00540793 0 0 0
224 2 -8.73947 1.41058 -1.94804 0.5564 0.0176064 0.00778028 0.00979584 0 0 0
225 2 -10.0736 1.44605 -1.23334 0.5564 0.0176539 -0.0104392 0.0107885 0 0 0
226 1 -9.28912 9.40931 1.2579 -1.1128 -0.00499555 0.00428097 -0.00373161 0 -1 0
227 2 -9.13284 9.29867 2.19575 0.5564 0.00275117 -0.000957594 -0.00563518 0 -1 0
228 2 -8.4218 9.57378 0.887843 0.5564 -0.00460511 -0.0207095 -0.013723 0 -1 0
229 1 -9.76834 8.57035 -5.07763 -1.1128 -0.000950428 -0.00794988 0.00664811 0 -1 0
230 2 -10.668 8.78172 -4.82821 0.5564 -0.000750507 0.0155899 -0.0127685 0 -1 0
231 2 -9.79671 7.64365 -5.31562 0.5564 -0.0239266 -0.00246382 -0.0120168 0 -1 0
232 1 -2.86922 2.18777 -16.8873 -1.1128 0.00173593 -0.00114684 -0.00393909 0 0 0
233 2 -2.28882 2.56907 -17.5461 0.5564 -0.015411 -0.0131797 -0.0259848 0 0 0
234 2 -3.48365 2.88992 -16.6735 0.5564 0.00141627 -0.000276943 -0.00771254 0 0 0
235 1 -3.84388 -13.0135 4.23965 -1.1128 0.00690196 0.00711516 0.00269375 0 0 0
236 2 -3.08465 -13.2748 4.76074 0.5564 0.0168739 0.00968173 -0.0105242 0 0 0
237 2 -4.14668 -12.202 4.64695 0.5564 0.00903234 0.00414245 0.0102115 0 0 0
238 1 3.64303 3.70231 -3.75628 -1.1128 -0.00213742 0.00216204 -0.0015153 0 0 0
239 2 3.57814 3.56275 -2.81153 0.5564 0.00570893 -0.00963842 -0.00269813 0 0 0
240 2 3.41172 4.62296 -3.87931 0.5564 -0.0241708 -0.00187906 0.00963726 0 0 0
241 1 -5.32217 -5.80535 -17.9424 -1.1128 0.00238454 0.00777972 0.00220643 0 0 0
242 2 -5.28119 -5.41792 -17.068 0.5564 -0.00888736 -0.00586347 0.00874753 0 0 0
243 2 -6.20144 -5.59525 -18.257 0.5564 0.00310916 0.00442007 -0.00205605 0 0 0
244 1 -3.34149 -1.07394 -5.33084 -1.1128 0.00308204 0.00140631 -0.0021354 0 0 0
245 2 -2.97214 -1.91653 -5.06654 0.5564 -0.0236586 -0.00077122 0.028047 0 0 0
246 2 -4.097 -1.30235 -5.87239 0.5564 -0.00713428 0.00601927 0.0101938 0 0 0
247 1 6.85058 -4.98677 -6.13719 -1.1128 -0.000946146 0.00550746 0.00181587 -1 0 0
248 2 7.26653 -5.56452 -5.49734 0.5564 0.00959595 -0.00786764 -0.01712 -1 0 0
249 2 6.01368 -4.74939 -5.73783 0.5564 -0.000584023 -0.0142554 0.0143029 -1 0 0
250 1 0.843805 -10.8596 -17.981 -1.1128 0.00143524 -7.8076e-05 -0.00439695 0 0 0
251 2 0.460204 -10.0239 -18.2468 0.5564 -0.0103992 -0.00493405 -0.00256792 0 0 0
252 2 1.78642 -10.6947 -17.9585 0.5564 -0.00180585 0.0166935 0.00819952 0 0 0
253 1 -11.1565 12.3188 -15.8122 -1.1128 -0.000989194 -0.00164412 -0.0036897 0 -1 0
254 2 -11.1256 13.2721 -15.8934 0.5564 -0.0170129 -0.0030303 -0.0256829 0 -1 0
255 2 -10.5428 12.0016 -16.4748 0.5564 0.00416975 -0.00660286 0.00347469 0 -1 0
256 1 13.4213 -13.9289 -18.1816 -1.1128 -0.00771527 0.000483705 0.00139774 -1 0 0
257 2 12.5462 14.0293 -18.3917 0.5564 0.00246421 -0.00874346 -0.0267691 -1 -1 0
258 2 13.5912 -13.2557 -18.8404 0.5564 0.0024357 0.00909954 0.0128033 -1 0 0
259 1 -3.20215 -3.58065 -16.62 -1.1128 0.000533172 -0.00283317 0.000917838 0 0 0
260 2 -2.71554 -3.98163 -17.3402 0.5564 0.00949864 0.00529134 0.00244215 0 0 0
261 2 -3.14958 -2.64 -16.7893 0.5564 -0.00396134 -0.00131325 0.00795045 0 0 0
262 1 -14.0475 0.183778 -0.699216 -1.1128 0.00174744 -0.0014174 -0.00459714 0 0 0
263 2 -13.6746 0.633517 -1.45748 0.5564 0.0114123 -0.00569024 -0.00236689 0 0 0
264 2 -13.8848 0.776 0.0349791 0.5564 -0.0210182 0.00955363 -0.00843154 0 0 0
265 1 -9.53233 -7.4156 -6.94128 -1.1128 -0.00330144 -0.00381414 0.00155656 0 0 0
266 2 -9.00663 -6.79268 -7.44313 0.5564 -0.0166475 0.00644377 0.000317241 0 0 0
267 2 -9.00714 -8.21572 -6.92655 0.5564 0.00261526 -0.000307199 -0.0182601 0 0 0
268 1 -3.54701 -7.12963 -11.3661 -1.1128 0.00274658 0.000686664 0.00090889 0 0 0
269 2 -3.77685 -8.0446 -11.2042 0.5564 0.00490389 0.00101073 0.00576934 0 0 0
270 2 -4.21063 -6.62804 -10.8926 0.5564 -0.00308232 0.00163685 -0.00828248 0 0 0
271 1 -4.6762 2.95548 -20.4453 -1.1128 0.00626242 -0.000133058 0.00286886 0 0 0
272 2 -5.52801 2.83657 -20.8654 0.5564 0.0106436 0.0150496 -0.0102995 0 0 0
273 2 -4.87813 3.04229 -19.5137 0.5564 -0.00714382 0.0100376 -0.000985228 0 0 0
274 1 -6.74701 -11.7176 -7.92901 -1.1128 -0.000938596 0.001673 -0.00164746 0 0 0
275 2 -7.3612 -12.3844 -7.62173 0.5564 -0.00497282 0.00818963 0.00443673 0 0 0
276 2 -5.95717 -12.2068 -8.15939 0.5564 -0.0122011 -0.00799384 -0.0199036 0 0 0
277 1 -3.39777 -9.04694 -1.16262 -1.1128 0.00240254 -0.00021066 0.00141866 0 0 0
278 2 -4.3202 -8.88267 -0.966737 0.5564 -0.001341 -0.0225757 0.00268152 0 0 0
279 2 -3.40545 -9.45728 -2.02738 0.5564 0.0117996 0.00748724 -0.00231859 0 0 0
280 1 -10.788 3.0022 -18.8173 -1.1128 -0.00441338 -0.00191649 0.000482368 0 0 0
281 2 -10.7621 3.39835 -17.9463 0.5564 0.00392469 0.00461332 -0.00272043 0 0 0
282 2 -10.5811 2.07969 -18.6676 0.5564 -0.00157494 -0.000515734 0.00526836 0 0 0
283 1 13.6176 -12.4021 -7.63703 -1.1128 0.00427769 -0.00402542 0.00154403 -1 0 0
284 2 -14.1348 -12.4282 -8.43245 0.5564 0.00705961 -0.0102292 0.00360045 0 0 0
285 2 13.9335 -13.1381 -7.11289 0.5564 0.0319402 0.0261344 0.0272435 -1 0 0
286 1 -1.84064 -2.36523 -12.2785 -1.1128 0.00409228 -0.00455157 -0.00489704 0 0 0
287 2 -2.56043 -2.63747 -11.7093 0.5564 0.000479844 0.0106159 -0.00221054 0 0 0
288 2 -1.87466 -2.97411 -13.0163 0.5564 -0.000593053 -0.0148032 0.00378309 0 0 0
289 1 0.556365 -12.7886 -15.422 -1.1128 0.000340315 -0.00221383 0.00117946 0 0 0
290 2 0.994329 -12.2542 -14.7596 0.5564 -0.0130792 -0.00322159 0.0108606 0 0 0
291 2 0.638859 -12.2835 -16.2309 0.5564 -0.0245396 0.0210216 0.0131499 0 0 0
292 1 -11.4386 14.0878 -1.50619 -1.1128 0.00486318 0.00746217 -0.00287472 0 -1 0
293 2 -11.2214 -13.3571 -1.10058 0.5564 0.0141616 0.0116525 -0.0165106 0 0 0
294 2 -11.0048 13.4358 -0.955814 0.5564 0.0184842 0.0132243 -0.00678749 0 -1 0
295 1 -9.10938 4.32549 -3.33609 -1.1128 0.00497941 -0.00742446 0.00327804 0 0 0
296 2 -9.56052 3.5824 -2.93543 0.5564 0.0149958 -0.0141597 0.00204836 0 0 0
297 2 -8.75587 4.81903 -2.59605 0.5564 -0.0102649 0.00157474 0.00455914 0 0 0
298 1 -1.1893 -4.83085 -10.0449 -1.1128 -0.00253811 -0.00349724 -0.00324915 0 0 0
299 2 -1.07491 -5.52271 -9.39337 0.5564 -0.00862882 -0.000966841 0.000517189 0 0 0
300 2 -1.38528 -4.04738 -9.53109 0.5564 -0.0185073 -0.00389477 -0.00869788 0 0 0
301 1 -2.87485 -11.1244 0.751027 -1.1128 -0.00144638 0.00226455 -0.00422807 0 0 0
302 2 -3.77676 -11.2821 1.03017 0.5564 0.00327009 0.0113639 0.016256 0 0 0
303 2 -2.9452 -10.4359 0.0898181 0.5564 -0.00814559 0.0126777 0.00733184 0 0 0
304 1 9.14602 11.4809 -7.8502 -1.1128 0.00182873 -0.000635565 -0.00181373 -1 -1 0
305 2 9.8153 12.0742 -8.19117 0.5564 -0.00391014 0.00684492 -3.45873e-05 -1 -1 0
306 2 8.7691 11.9475 -7.10428 0.5564 -0.00134622 -0.00734015 0.000767492 -1 -1 0
307 1 0.563457 -10.0717 -9.3146 -1.1128 -0.00378538 -0.00364037 -0.00669932 0 0 0
308 2 1.21145 -10.0866 -8.61025 0.5564 -0.00998192 0.00165556 -0.000868466 0 0 0
309 2 1.08291 -10.0395 -10.1179 0.5564 0.00302907 0.0110785 -0.00167975 0 0 0
310 1 -10.748 -5.22815 -9.60222 -1.1128 0.00701953 0.00144528 0.00168991 0 0 0
311 2 -10.03 -5.57192 -9.07071 0.5564 -0.0101743 -0.0355459 0.00112649 0 0 0
312 2 -10.4114 -5.24197 -10.4982 0.5564 0.00636848 -0.0137976 0.00168979 0 0 0
313 1 13.234 8.94826 -18.2136 -1.1128 0.00114888 0.00127827 -0.00348742 -1 -1 0
314 2 13.951 9.49655 -18.5324 0.5564 -0.024002 0.0224973 -0.0236045 -1 -1 0
315 2 13.1791 8.23282 -18.8472 0.5564 0.00813553 -0.00324662 0.00103096 -1 -1 0
316 1 -4.45119 3.16625 2.62914 -1.1128 0.00225304 0.00273489 -0.00316395 0 0 0
317 2 -5.05206 3.39099 3.33954 0.5564 0.0135192 0.00538449 0.00553459 0 0 0
318 2 -5.0176 2.83975 1.92999 0.5564 -0.00834643 -0.00583323 0.00939469 0 0 0
319 1 -12.817 1.2875 -12.8527 -1.1128 0.00146896 -0.00210054 -0.00120844 0 0 0
320 2 -12.5882 1.84877 -12.1119 0.5564 -0.00405316 -0.00294329 0.00114913 0 0 0
321 2 -13.2055 1.88278 -13.4938 0.5564 0.00665797 -0.00130011 -0.00360054 0 0 0
322 1 -9.86509 -8.88494 -18.5646 -1.1128 -0.00229535 0.00256365 0.000469967 0 0 0
323 2 -9.1262 -9.41756 -18.8588 0.5564 -0.0022123 -0.00216984 0.00924952 0 0 0
324 2 -9.90976 -8.16682 -19.1959 0.5564 0.0103364 0.00333517 0.000451763 0 0 0
325 1 -3.60386 -3.72279 -10.7923 -1.1128 0.0029637 -0.00259358 -0.00445505 0 0 0
326 2 -3.52622 -3.25883 -9.95868 0.5564 0.0177166 0.00112195 -0.00789083 0 0 0
327 2 -2.85047 -4.31298 -10.8096 0.5564 0.0145833 0.0128073 -0.0248909 0 0 0
328 1 -10.8952 -10.2898 -13.3829 -1.1128 0.006855 -0.000498491 -0.00929832 0 0 0
329 2 -11.7216 -9.80702 -13.3972 0.5564 0.0156462 0.0145447 -0.0105188 0 0 0
330 2 -10.5749 -10.1908 -12.4863 0.5564 0.00394858 -0.0120274 -0.00700327 0 0 0
331 1 -12.8839 -4.74086 -0.82546 -1.1128 0.00301293 0.00150465 0.0022101 0 0 0
332 2 -12.3202 -4.9411 -0.0782021 0.5564 -0.0133849 -0.000361943 0.0141133 0 0 0
333 2 -12.5636 -5.30839 -1.52657 0.5564 0.0111514 -0.00492442 0.0111463 0 0 0
334 1 -0.863341 4.8115 -15.4206 -1.1128 -0.000130571 -0.00404722 0.00196967 0 -1 0
335 2 -1.75169 4.62369 -15.1177 0.5564 -0.00622893 0.0161709 -0.00336316 0 -1 0
336 2 -0.980393 5.16701 -16.3016 0.5564 0.0130683 0.000921174 0.00222542 0 -1 0
337 1 11.6129 -9.19085 -5.12995 -1.1128 0.00128753 -0.00133031 -0.00361227 -1 0 0
338 2 11.2062 -8.36089 -5.37896 0.5564 0.0107021 -0.00116886 -0.018406 -1 0 0
339 2 11.3888 -9.79086 -5.84128 0.5564 0.00885224 -0.00694868 -0.00125356 -1 0 0
340 1 3.38826 -0.653295 -18.8965 -1.1128 -0.000759323 -0.00285415 0.00203991 0 -1 0
341 2 3.85188 0.0136591 -18.3901 0.5564 0.0138142 -0.0194774 0.0106217 0 -1 0
342 2 3.99771 -0.89071 -19.5954 0.5564 -0.0151376 0.00961151 -0.0147362 0 -1 0
343 1 -8.79869 -13.0777 -13.1526 -1.1128 -0.00562799 -0.000136255 0.00147025 0 0 0
344 2 -8.22853 -13.1666 -13.9163 0.5564 -0.0106276 0.00310632 -0.00264082 0 0 0
345 2 -9.6759 -12.9676 -13.5195 0.5564 -0.00751484 0.00530335 0.00761907 0 0 0
346 1 13.1512 -8.82471 -11.0198 -1.1128 0.00822595 0.00108312 -0.00135398 -1 0 0
347 2 12.5786 -9.30634 -11.6168 0.5564 -0.00648205 0.0115863 0.00430911 -1 0 0
348 2 13.6502 -9.50376 -10.5658 0.5564 0.0123006 -0.00733365 -0.0184406 -1 0 0
349 1 -2.9846 -10.2634 -3.50922 -1.1128 -0.0056367 0.00732117 0.00377634 0 0 0
350 2 -2.07019 -10.2968 -3.22819 0.5564 -0.00888377 0.0306723 0.0171349 0 0 0
351 2 -2.94362 -10.0007 -4.42875 0.5564 0.0019845 -0.0088828 -0.000505099 0 0 0
352 1 -3.93166 -6.89595 -3.9373 -1.1128 -0.00137481 -0.000353818 -0.00413799 0 0 0
353 2 -3.49306 -7.50386 -3.34206 0.5564 0.00859573 0.0189452 0.00822606 0 0 0
354 2 -4.14862 -7.42575 -4.70442 0.5564 0.0358572 -0.0119417 -0.0066837 0 0 0
355 1 -8.26684 14.121 -7.49358 -1.1128 0.00343394 0.00244606 0.00790799 0 -1 0
356 2 -7.596 13.8579 -6.86353 0.5564 -0.00577885 -0.005687 0.0143224 0 -1 0
357 2 -7.94481 13.7991 -8.33553 0.5564 -0.000999979 -0.0169622 0.0136382 0 -1 0
358 1 0.986057 11.2106 -13.1552 -1.1128 -0.00373316 -0.00560521 -0.00777131 0 -1 0
359 2 0.37149 11.8507 -12.7962 0.5564 0.0138575 0.00499527 0.00350574 0 -1 0
360 2 1.3588 11.6412 -13.9246 0.5564 0.0344859 0.0115576 0.0203596 0 -1 0
361 1 -10.6404 -6.2197 -19.6841 -1.1128 0.00220218 0.000649869 0.00324922 0 0 0
362 2 -11.5252 -5.85525 -19.7075 0.5564 -0.00389053 -0.0143591 0.000388495 0 0 0
363 2 -10.1352 -5.66136 -20.275 0.5564 -0.0153219 -0.0172468 -0.0285913 0 0 0
364 1 -9.50375 -7.07185 -16.1051 -1.1128 0.000831613 -0.00342141 0.00101647 0 0 0
365 2 -9.9889 -7.50109 -16.8098 0.5564 0.00646667 0.00683201 -0.00908813 0 0 0
366 2 -9.06584 -7.78767 -15.6446 0.5564 0.00651028 -0.0089848 -0.0130101 0 0 0
367 1 12.4457 10.064 -7.65535 -1.1128 -0.00112116 0.0108282 0.00152893 -1 -1 0
368 2 11.8554 9.88747 -8.38789 0.5564 0.018071 0.00120663 -0.0116476 -1 -1 0
369 2 13.0824 10.6873 -8.00507 0.5564 0.00561929 0.00938897 0.0112359 -1 -1 0
370 1 -13.9497 4.03399 -9.64069 -1.1128 0.000845474 -0.00551201 0.00109751 0 -1 0